/*--------------------------------*- C++ -*----------------------------------*\
| =========                 |                                                 |
| \\      /  F ield         | OpenFOAM: The Open Source CFD Toolbox           |
|  \\    /   O peration     | Version:  4.0                                   |
|   \\  /    A nd           | Web:      www.OpenFOAM.org                      |
|    \\/     M anipulation  |                                                 |
\*---------------------------------------------------------------------------*/
FoamFile
{
    version     2.0;
    format      ascii;
    class       volScalarField;
    location    "90";
    object      Qr;
}
// * * * * * * * * * * * * * * * * * * * * * * * * * * * * * * * * * * * * * //

dimensions      [1 0 -3 0 0 0 0];

internalField   uniform 0;

boundaryField
{
    WALL
    {
        type            calculated;
        value           nonuniform List<scalar> 
400
(
-9.819132231e-06
-9.838153015e-06
-9.869496717e-06
-9.909162013e-06
-9.952219734e-06
-9.993885691e-06
-1.003039052e-05
-1.00595306e-05
-1.00796242e-05
-1.008997545e-05
-9.896781105e-06
-9.915656915e-06
-9.946826646e-06
-9.986636917e-06
-1.003024555e-05
-1.007269437e-05
-1.011004006e-05
-1.013970204e-05
-1.016011459e-05
-1.01707268e-05
-9.96135319e-06
-9.982345642e-06
-1.001653086e-05
-1.005921165e-05
-1.010516888e-05
-1.014932842e-05
-1.018794989e-05
-1.021836575e-05
-1.023909724e-05
-1.024973844e-05
-1.000655655e-05
-1.002954966e-05
-1.006730128e-05
-1.011375143e-05
-1.01630141e-05
-1.020987018e-05
-1.025023136e-05
-1.028172004e-05
-1.030300244e-05
-1.031375962e-05
-1.002966564e-05
-1.005373158e-05
-1.009354185e-05
-1.014251457e-05
-1.019398087e-05
-1.024277962e-05
-1.028450357e-05
-1.031692009e-05
-1.033869541e-05
-1.034956857e-05
-1.002966564e-05
-1.005373158e-05
-1.009342587e-05
-1.014239859e-05
-1.019398087e-05
-1.024277962e-05
-1.028456156e-05
-1.031697808e-05
-1.033863742e-05
-1.034953957e-05
-1.000661454e-05
-1.002960765e-05
-1.006724329e-05
-1.011369344e-05
-1.01630141e-05
-1.02097832e-05
-1.025028935e-05
-1.028166205e-05
-1.030294445e-05
-1.031370163e-05
-9.961324195e-06
-9.982345642e-06
-1.001655986e-05
-1.005918265e-05
-1.010513989e-05
-1.01494154e-05
-1.018794989e-05
-1.021822077e-05
-1.023903925e-05
-1.024965146e-05
-9.896723115e-06
-9.915656915e-06
-9.946826646e-06
-9.986578926e-06
-1.003024555e-05
-1.007260738e-05
-1.010998207e-05
-1.013958606e-05
-1.015996962e-05
-1.017055283e-05
-9.819219216e-06
-9.838240001e-06
-9.869467722e-06
-9.909104022e-06
-9.952132749e-06
-9.993711721e-06
-1.003030354e-05
-1.005938562e-05
-1.007945023e-05
-1.008983047e-05
-9.819045245e-06
-9.83812402e-06
-9.869380737e-06
-9.909075027e-06
-9.952103754e-06
-9.993769711e-06
-1.003036153e-05
-1.005935662e-05
-1.007939224e-05
-1.008983047e-05
-9.89663613e-06
-9.915540934e-06
-9.946797651e-06
-9.986520936e-06
-1.003012956e-05
-1.007254939e-05
-1.010992408e-05
-1.013949908e-05
-1.015994062e-05
-1.017049484e-05
-9.96123721e-06
-9.982142676e-06
-1.001650187e-05
-1.005912466e-05
-1.01050819e-05
-1.014932842e-05
-1.018792089e-05
-1.021824977e-05
-1.023895227e-05
-1.024950648e-05
-1.000646956e-05
-1.002952067e-05
-1.006724329e-05
-1.011372243e-05
-1.016295611e-05
-1.02097832e-05
-1.025014437e-05
-1.028154607e-05
-1.030279947e-05
-1.031349867e-05
-1.002960765e-05
-1.005367359e-05
-1.009345486e-05
-1.014236959e-05
-1.019403886e-05
-1.024277962e-05
-1.028450357e-05
-1.031680411e-05
-1.033846345e-05
-1.034930761e-05
-1.002963665e-05
-1.005367359e-05
-1.009345486e-05
-1.014239859e-05
-1.019395187e-05
-1.024266364e-05
-1.028450357e-05
-1.031680411e-05
-1.033855043e-05
-1.034933661e-05
-1.000649856e-05
-1.002949167e-05
-1.006724329e-05
-1.011369344e-05
-1.016298511e-05
-1.02097542e-05
-1.025014437e-05
-1.028166205e-05
-1.030282847e-05
-1.031349867e-05
-9.9612952e-06
-9.982258657e-06
-1.001650187e-05
-1.005915366e-05
-1.010511089e-05
-1.014927043e-05
-1.01878629e-05
-1.021824977e-05
-1.023892327e-05
-1.024950648e-05
-9.89663613e-06
-9.915511939e-06
-9.94668167e-06
-9.986491941e-06
-1.003012956e-05
-1.007260738e-05
-1.010995307e-05
-1.013958606e-05
-1.015999861e-05
-1.017049484e-05
-9.819045245e-06
-9.838037035e-06
-9.869351742e-06
-9.908959047e-06
-9.952074759e-06
-9.993798706e-06
-1.003030354e-05
-1.005932763e-05
-1.007939224e-05
-1.008974349e-05
-9.819219216e-06
-9.8968101e-06
-9.961382186e-06
-1.000661454e-05
-1.002969464e-05
-1.002972363e-05
-1.000652755e-05
-9.9612952e-06
-9.89657814e-06
-9.819045245e-06
-9.838240001e-06
-9.91568591e-06
-9.982374637e-06
-1.002960765e-05
-1.005370258e-05
-1.005373158e-05
-1.002949167e-05
-9.982258657e-06
-9.915511939e-06
-9.838037035e-06
-9.869467722e-06
-9.946855641e-06
-1.001655986e-05
-1.006727229e-05
-1.009348386e-05
-1.009345486e-05
-1.00672143e-05
-1.001650187e-05
-9.946652675e-06
-9.869351742e-06
-9.909104022e-06
-9.986607922e-06
-1.005915366e-05
-1.011366444e-05
-1.01423406e-05
-1.01423406e-05
-1.011366444e-05
-1.005915366e-05
-9.986491941e-06
-9.908959047e-06
-9.952132749e-06
-1.003012956e-05
-1.01050819e-05
-1.016295611e-05
-1.019400986e-05
-1.019398087e-05
-1.016295611e-05
-1.01050529e-05
-1.003012956e-05
-9.952074759e-06
-9.993711721e-06
-1.007263638e-05
-1.01494154e-05
-1.02097832e-05
-1.024263464e-05
-1.024263464e-05
-1.02097832e-05
-1.014932842e-05
-1.007263638e-05
-9.993798706e-06
-1.003030354e-05
-1.010992408e-05
-1.01878629e-05
-1.025005739e-05
-1.028441658e-05
-1.028441658e-05
-1.025020237e-05
-1.018794989e-05
-1.010998207e-05
-1.003030354e-05
-1.005938562e-05
-1.013952807e-05
-1.021810479e-05
-1.028148808e-05
-1.031677511e-05
-1.031680411e-05
-1.028163305e-05
-1.021824977e-05
-1.013955707e-05
-1.005932763e-05
-1.007945023e-05
-1.015996962e-05
-1.023886528e-05
-1.030274148e-05
-1.033849244e-05
-1.033852144e-05
-1.030291545e-05
-1.023901026e-05
-1.015996962e-05
-1.007939224e-05
-1.008983047e-05
-1.017052383e-05
-1.024956447e-05
-1.031346967e-05
-1.03493656e-05
-1.03493656e-05
-1.031355666e-05
-1.024959347e-05
-1.017049484e-05
-1.008974349e-05
-9.819132231e-06
-9.89663613e-06
-9.961411181e-06
-1.000667253e-05
-1.002978162e-05
-1.002975263e-05
-1.000655655e-05
-9.961266205e-06
-9.89663613e-06
-9.819045245e-06
-9.838153015e-06
-9.91562792e-06
-9.982403632e-06
-1.002966564e-05
-1.005376057e-05
-1.005376057e-05
-1.002954966e-05
-9.982229662e-06
-9.915511939e-06
-9.83812402e-06
-9.869496717e-06
-9.946768656e-06
-1.001664684e-05
-1.006738827e-05
-1.009357084e-05
-1.009351285e-05
-1.006727229e-05
-1.001647287e-05
-9.946710666e-06
-9.869380737e-06
-9.909162013e-06
-9.986607922e-06
-1.005924064e-05
-1.011375143e-05
-1.014248557e-05
-1.014239859e-05
-1.011366444e-05
-1.005912466e-05
-9.986549931e-06
-9.909075027e-06
-9.952219734e-06
-1.003027454e-05
-1.010516888e-05
-1.016295611e-05
-1.019403886e-05
-1.019398087e-05
-1.01630431e-05
-1.010511089e-05
-1.003012956e-05
-9.952103754e-06
-9.993885691e-06
-1.007266537e-05
-1.014938641e-05
-1.020984119e-05
-1.024275062e-05
-1.024269263e-05
-1.020984119e-05
-1.01494154e-05
-1.007260738e-05
-9.993769711e-06
-1.003039052e-05
-1.011001106e-05
-1.018800788e-05
-1.025020237e-05
-1.028447457e-05
-1.028447457e-05
-1.025026036e-05
-1.018797888e-05
-1.010995307e-05
-1.003036153e-05
-1.00595306e-05
-1.013973104e-05
-1.021839474e-05
-1.028174903e-05
-1.03168621e-05
-1.03168621e-05
-1.028174903e-05
-1.021822077e-05
-1.013955707e-05
-1.005935662e-05
-1.00796242e-05
-1.016017258e-05
-1.023909724e-05
-1.030297344e-05
-1.033863742e-05
-1.033857943e-05
-1.030288646e-05
-1.023898126e-05
-1.015991163e-05
-1.007939224e-05
-1.008997545e-05
-1.017075579e-05
-1.024970945e-05
-1.031364364e-05
-1.03493946e-05
-1.034942359e-05
-1.031358565e-05
-1.024956447e-05
-1.017052383e-05
-1.008983047e-05
)
;
    }
    INLET
    {
        type            calculated;
        value           uniform -0;
    }
    OUTLET
    {
        type            calculated;
        value           uniform -0;
    }
}


// ************************************************************************* //
