/*--------------------------------*- C++ -*----------------------------------*\
| =========                 |                                                 |
| \\      /  F ield         | OpenFOAM: The Open Source CFD Toolbox           |
|  \\    /   O peration     | Version:  4.0                                   |
|   \\  /    A nd           | Web:      www.OpenFOAM.org                      |
|    \\/     M anipulation  |                                                 |
\*---------------------------------------------------------------------------*/
FoamFile
{
    version     2.0;
    format      ascii;
    class       volScalarField;
    location    "90";
    object      pDyn;
}
// * * * * * * * * * * * * * * * * * * * * * * * * * * * * * * * * * * * * * //

dimensions      [1 -1 -2 0 0 0 0];

internalField   nonuniform List<scalar> 
1000
(
0.001009850779
0.001276287795
0.001263830964
0.001249915847
0.00124468848
0.001244688486
0.001249915856
0.001263830972
0.001276287792
0.001009850783
0.001276287785
0.001657513055
0.001650066184
0.001632385919
0.001625597193
0.00162559718
0.001632385923
0.001650066192
0.001657513053
0.001276287804
0.001263830953
0.001650066189
0.00164210729
0.001623805347
0.001616792448
0.001616792431
0.001623805332
0.001642107272
0.001650066176
0.001263830971
0.001249915859
0.001632385932
0.001623805335
0.001605245008
0.001598136159
0.001598136144
0.001605244985
0.001623805323
0.001632385918
0.001249915853
0.00124468848
0.0016255972
0.001616792442
0.001598136165
0.001591021878
0.001591021863
0.001598136137
0.001616792423
0.001625597186
0.001244688484
0.00124468847
0.001625597207
0.001616792451
0.001598136173
0.001591021886
0.00159102187
0.001598136136
0.001616792417
0.001625597193
0.001244688479
0.001249915838
0.001632385926
0.001623805359
0.00160524503
0.001598136175
0.001598136159
0.001605244981
0.001623805325
0.001632385921
0.001249915859
0.001263830949
0.001650066164
0.001642107289
0.001623805354
0.001616792458
0.001616792437
0.001623805338
0.001642107273
0.00165006617
0.001263830959
0.001276287769
0.001657513036
0.001650066187
0.001632385936
0.001625597208
0.001625597193
0.001632385913
0.001650066175
0.001657513043
0.00127628779
0.001009850769
0.00127628779
0.001263830968
0.001249915875
0.001244688507
0.0012446885
0.00124991585
0.001263830957
0.001276287784
0.001009850776
0.0008152173375
0.001206459988
0.00119720944
0.001161765396
0.001144079035
0.001144079039
0.001161765412
0.001197209456
0.001206459988
0.0008152173472
0.001206459974
0.001851353918
0.001868398549
0.001822297658
0.001797062867
0.001797062855
0.001822297652
0.001868398546
0.001851353924
0.001206459987
0.001197209421
0.001868398529
0.0018904924
0.001843148699
0.001816516469
0.001816516452
0.001843148662
0.001890492375
0.001868398536
0.001197209449
0.00116176538
0.001822297641
0.00184314868
0.001795069131
0.001767958757
0.001767958724
0.001795069078
0.001843148627
0.001822297636
0.001161765403
0.001144079006
0.001797062849
0.001816516468
0.001767958776
0.001740713333
0.0017407133
0.001767958693
0.001816516404
0.001797062841
0.001144079023
0.001144079006
0.00179706285
0.001816516485
0.001767958788
0.001740713352
0.001740713311
0.001767958691
0.0018165164
0.001797062837
0.001144079031
0.001161765363
0.001822297628
0.001843148709
0.001795069169
0.001767958787
0.001767958745
0.001795069074
0.001843148632
0.001822297627
0.001161765407
0.001197209409
0.001868398508
0.001890492405
0.001843148722
0.001816516502
0.001816516464
0.001843148652
0.001890492352
0.001868398521
0.001197209445
0.001206459951
0.001851353897
0.001868398557
0.001822297698
0.0017970629
0.001797062873
0.001822297644
0.001868398513
0.001851353906
0.001206459978
0.0008152173237
0.001206459973
0.001197209466
0.001161765432
0.001144079066
0.001144079057
0.001161765409
0.001197209434
0.001206459971
0.0008152173326
0.000538568131
0.0009916518065
0.001034464661
0.001003157585
0.0009804523228
0.0009804523306
0.001003157597
0.001034464655
0.0009916518035
0.0005385681164
0.0009916517837
0.001871769687
0.001993242109
0.001952282874
0.001915464166
0.001915464155
0.001952282861
0.001993242097
0.001871769717
0.0009916517913
0.001034464622
0.001993242088
0.00213551241
0.002094908321
0.00205528292
0.002055282885
0.002094908264
0.002135512376
0.001993242093
0.001034464646
0.001003157568
0.001952282846
0.002094908285
0.002053916334
0.002013570562
0.002013570531
0.002053916262
0.002094908236
0.001952282857
0.001003157605
0.0009804522947
0.001915464131
0.002055282907
0.002013570583
0.001973002484
0.001973002447
0.002013570485
0.002055282838
0.001915464139
0.0009804523382
0.0009804522861
0.001915464137
0.002055282931
0.002013570597
0.001973002496
0.001973002448
0.002013570475
0.00205528282
0.001915464136
0.0009804523279
0.001003157548
0.00195228283
0.002094908316
0.002053916365
0.002013570591
0.002013570534
0.002053916257
0.002094908229
0.001952282853
0.001003157596
0.001034464611
0.001993242065
0.002135512437
0.002094908349
0.002055282938
0.002055282896
0.002094908249
0.00213551236
0.001993242093
0.00103446465
0.0009916517698
0.001871769686
0.001993242115
0.001952282909
0.001915464191
0.00191546417
0.001952282863
0.001993242074
0.001871769686
0.0009916517885
0.0005385681107
0.0009916517789
0.001034464654
0.001003157616
0.0009804523487
0.0009804523413
0.001003157594
0.001034464645
0.0009916517972
0.0005385681142
0.0003342055133
0.0007662725178
0.0008597482552
0.0008480990371
0.0008291523403
0.0008291523442
0.0008480990394
0.0008597482438
0.0007662725135
0.0003342055093
0.0007662725093
0.001776092615
0.002024862419
0.002019173757
0.001984219903
0.001984219894
0.00201917376
0.002024862398
0.001776092615
0.0007662725151
0.0008597482378
0.002024862402
0.002322153812
0.002321889815
0.002283253365
0.00228325334
0.002321889775
0.002322153793
0.002024862418
0.000859748256
0.000848099013
0.002019173735
0.002321889802
0.002322222745
0.002282682961
0.002282682935
0.002322222674
0.002321889786
0.002019173779
0.0008480990605
0.0008291523154
0.001984219866
0.00228325335
0.002282682974
0.002242850994
0.002242850947
0.002282682886
0.002283253304
0.001984219908
0.0008291523733
0.0008291523174
0.001984219889
0.002283253385
0.002282683
0.002242850996
0.002242850936
0.002282682865
0.002283253288
0.001984219906
0.0008291523709
0.0008480990125
0.002019173735
0.002321889829
0.002322222777
0.002282682994
0.002282682929
0.002322222658
0.002321889726
0.002019173758
0.0008480990593
0.0008597482176
0.00202486237
0.002322153822
0.002321889873
0.002283253397
0.002283253357
0.002321889756
0.002322153755
0.002024862395
0.0008597482508
0.0007662725003
0.001776092602
0.002024862415
0.002019173801
0.001984219924
0.001984219899
0.002019173753
0.002024862398
0.001776092611
0.0007662725078
0.0003342055111
0.000766272513
0.0008597482501
0.0008480990384
0.0008291523508
0.0008291523471
0.0008480990474
0.0008597482471
0.0007662725122
0.0003342055058
0.000222287201
0.0006011099336
0.0007239598977
0.0007329482098
0.0007215082848
0.0007215082847
0.0007329482223
0.0007239599005
0.0006011099251
0.0002222871939
0.0006011099338
0.001652567668
0.002011769485
0.002054520859
0.002031625477
0.002031625473
0.00205452086
0.002011769481
0.001652567654
0.0006011099314
0.0007239598968
0.002011769486
0.002457014297
0.002514708901
0.002488564027
0.00248856401
0.002514708863
0.002457014282
0.002011769494
0.0007239599181
0.0007329482013
0.002054520846
0.002514708886
0.002574801547
0.002547560581
0.002547560543
0.002574801474
0.002514708872
0.002054520894
0.0007329482378
0.00072150828
0.002031625454
0.002488564029
0.002547560604
0.002519874948
0.002519874902
0.002547560494
0.002488563979
0.002031625507
0.0007215083251
0.0007215082846
0.002031625457
0.002488564043
0.00254756063
0.002519874986
0.002519874906
0.002547560488
0.002488563974
0.002031625503
0.0007215083209
0.0007329481995
0.002054520826
0.002514708897
0.002574801592
0.002547560618
0.00254756056
0.002574801466
0.002514708833
0.002054520885
0.0007329482484
0.0007239598907
0.002011769452
0.00245701431
0.002514708936
0.002488564056
0.002488564016
0.002514708856
0.002457014262
0.002011769497
0.0007239599175
0.0006011099392
0.001652567646
0.002011769491
0.002054520881
0.00203162548
0.002031625468
0.002054520864
0.00201176949
0.001652567659
0.0006011099261
0.000222287204
0.0006011099296
0.0007239598964
0.0007329482018
0.0007215082671
0.0007215082798
0.0007329482187
0.0007239599088
0.000601109924
0.0002222871945
0.000160899143
0.0004871120174
0.0006230817534
0.000648845959
0.0006453690136
0.0006453690167
0.0006488459636
0.0006230817635
0.0004871120097
0.000160899135
0.0004871120199
0.001532704288
0.001978158072
0.002072275967
0.00206736238
0.002067362396
0.002072275979
0.00197815808
0.001532704282
0.0004871120034
0.0006230817655
0.001978158094
0.002553331935
0.002676447161
0.002670535
0.002670534991
0.002676447139
0.002553331918
0.0019781581
0.0006230817679
0.0006488459677
0.002072275975
0.00267644717
0.002804968381
0.002797858529
0.002797858512
0.002804968336
0.002676447151
0.002072276016
0.0006488459842
0.0006453690278
0.002067362374
0.002670534988
0.002797858543
0.002790010798
0.002790010764
0.002797858466
0.002670534971
0.002067362447
0.0006453690451
0.0006453690261
0.002067362355
0.002670534977
0.002797858565
0.002790010821
0.002790010765
0.00279785845
0.00267053498
0.00206736245
0.0006453690527
0.0006488459636
0.002072275917
0.002676447137
0.002804968401
0.002797858566
0.002797858516
0.00280496832
0.002676447133
0.002072276016
0.0006488459843
0.0006230817637
0.001978158039
0.002553331908
0.002676447177
0.00267053502
0.002670535011
0.002676447143
0.002553331917
0.001978158113
0.0006230817737
0.0004871120325
0.001532704268
0.001978158074
0.002072275959
0.002067362391
0.002067362404
0.002072275982
0.00197815809
0.001532704284
0.0004871120113
0.000160899152
0.0004871120232
0.0006230817549
0.0006488459478
0.0006453689995
0.000645369012
0.0006488459654
0.0006230817641
0.0004871120071
0.0001608991349
0.0001243176492
0.0004068250756
0.0005465322426
0.0005847401444
0.0005883714993
0.0005883715163
0.0005847401604
0.0005465322443
0.0004068250592
0.0001243176347
0.000406825088
0.001423654439
0.001933369295
0.002076729155
0.002092654384
0.002092654411
0.002076729193
0.001933369327
0.001423654433
0.0004068250619
0.000546532272
0.00193336932
0.00261910552
0.002809515867
0.002828772887
0.00282877291
0.002809515891
0.002619105562
0.001933369353
0.0005465322513
0.000584740187
0.002076729169
0.002809515871
0.00300991668
0.003028201007
0.00302820101
0.003009916684
0.002809515909
0.002076729239
0.0005847401687
0.0005883715313
0.002092654367
0.002828772874
0.003028201001
0.003045354172
0.003045354157
0.003028200996
0.002828772937
0.002092654481
0.0005883715413
0.000588371524
0.002092654332
0.002828772831
0.003028201019
0.003045354189
0.003045354167
0.003028200984
0.002828772908
0.002092654487
0.0005883715443
0.0005847401716
0.002076729074
0.002809515807
0.003009916709
0.003028201045
0.003028201036
0.003009916676
0.002809515903
0.002076729241
0.0005847401815
0.000546532267
0.001933369245
0.002619105487
0.002809515872
0.002828772927
0.002828772925
0.002809515891
0.002619105554
0.001933369354
0.0005465322679
0.0004068250997
0.001423654421
0.00193336927
0.002076729141
0.002092654381
0.002092654417
0.002076729192
0.001933369332
0.001423654452
0.0004068250762
0.0001243176584
0.0004068250845
0.0005465322375
0.0005847401339
0.0005883714892
0.0005883715015
0.0005847401575
0.000546532261
0.0004068250775
0.0001243176441
0.0001013221511
0.0003497021017
0.0004883105729
0.0005352279438
0.0005446854606
0.0005446854664
0.0005352279624
0.0004883105881
0.000349702093
0.000101322138
0.0003497021128
0.001328487949
0.001884047086
0.002071640372
0.002108957062
0.002108957093
0.002071640447
0.001884047154
0.001328487939
0.0003497020898
0.0004883106074
0.00188404712
0.002661147158
0.002916629823
0.002963557654
0.002963557704
0.002916629921
0.002661147259
0.001884047168
0.0004883105771
0.0005352279999
0.002071640399
0.002916629832
0.003188349164
0.003235086872
0.003235086888
0.003188349214
0.002916629948
0.002071640502
0.0005352279719
0.0005446854991
0.002108957024
0.002963557611
0.003235086867
0.003280321601
0.003280321611
0.003235086918
0.002963557765
0.002108957203
0.0005446854943
0.0005446854895
0.002108956984
0.002963557574
0.003235086866
0.003280321622
0.003280321642
0.003235086927
0.002963557762
0.002108957211
0.0005446854933
0.0005352279838
0.002071640316
0.002916629757
0.003188349167
0.003235086928
0.003235086935
0.003188349229
0.002916629946
0.002071640523
0.0005352279843
0.0004883106087
0.001884047043
0.002661147083
0.002916629817
0.002963557678
0.002963557721
0.002916629916
0.002661147254
0.001884047191
0.0004883105883
0.0003497021254
0.001328487919
0.001884047049
0.002071640363
0.002108957047
0.002108957082
0.002071640462
0.001884047169
0.001328487976
0.0003497021061
0.0001013221611
0.0003497021092
0.0004883105734
0.0005352279431
0.0005446854488
0.0005446854597
0.0005352279741
0.0004883105976
0.0003497021128
0.0001013221508
8.586823286e-05
0.0003080207226
0.0004436545316
0.000496702581
0.0005109003525
0.0005109003546
0.000496702596
0.0004436545472
0.0003080207267
8.586822567e-05
0.0003080207392
0.00124712489
0.001834668766
0.002060615116
0.002118592328
0.002118592369
0.002060615227
0.001834668861
0.001247124919
0.0003080207226
0.0004436545684
0.001834668788
0.00268602004
0.003002065256
0.003077524974
0.003077525062
0.003002065426
0.002686020216
0.001834668865
0.0004436545316
0.0004967026256
0.002060615134
0.003002065243
0.003342175435
0.003419028942
0.003419029036
0.003342175649
0.003002065503
0.002060615279
0.0004967025832
0.0005109003931
0.002118592281
0.0030775249
0.003419028894
0.003494238395
0.003494238505
0.003419029162
0.003077525239
0.002118592507
0.0005109003548
0.0005109004033
0.002118592256
0.003077524859
0.003419028851
0.003494238384
0.003494238512
0.003419029181
0.003077525274
0.002118592529
0.0005109003619
0.0004967026471
0.002060615095
0.003002065145
0.003342175352
0.003419028902
0.003419029045
0.003342175678
0.00300206556
0.002060615329
0.0004967025986
0.000443654595
0.001834668768
0.002686019938
0.003002065143
0.003077524899
0.003077525033
0.003002065465
0.002686020266
0.001834668926
0.0004436545437
0.0003080207707
0.001247124883
0.001834668703
0.00206061502
0.002118592228
0.002118592323
0.002060615234
0.001834668901
0.001247124959
0.000308020735
8.586824691e-05
0.0003080207392
0.0004436545217
0.0004967025585
0.0005109003238
0.0005109003455
0.0004967026032
0.0004436545563
0.0003080207403
8.586823437e-05
7.262704676e-05
0.0002713606713
0.0004034585141
0.0004622925092
0.0004815554863
0.0004815554877
0.000462292514
0.0004034585118
0.0002713606673
7.262704249e-05
0.0002713606795
0.001166777462
0.001779944234
0.002044673178
0.002126135129
0.002126135181
0.002044673308
0.001779944351
0.001166777502
0.0002713606547
0.0004034585405
0.001779944238
0.002701816589
0.003084285696
0.003194797932
0.003194798064
0.003084286017
0.002701816892
0.001779944355
0.0004034584949
0.0004622925518
0.002044673185
0.003084285641
0.003503178686
0.003618903529
0.003618903754
0.003503179228
0.003084286133
0.002044673374
0.0004622924846
0.000481555556
0.002126135094
0.003194797747
0.003618903322
0.003733685287
0.003733685591
0.003618904036
0.003194798406
0.002126135337
0.0004815554484
0.0004815555818
0.002126135113
0.00319479771
0.003618903218
0.003733685171
0.00373368554
0.003618904074
0.003194798481
0.002126135385
0.0004815554613
0.0004622926233
0.002044673216
0.003084285537
0.003503178417
0.003618903237
0.00361890361
0.003503179279
0.003084286292
0.002044673478
0.0004622925067
0.000403458616
0.001779944266
0.002701816454
0.003084285392
0.003194797608
0.003194797897
0.003084286061
0.002701817046
0.001779944458
0.0004034585295
0.0002713607218
0.001166777468
0.001779944137
0.00204467299
0.00212613493
0.002126135074
0.002044673336
0.001779944431
0.001166777564
0.0002713606805
7.262706281e-05
0.0002713606772
0.0004034585011
0.0004622924743
0.0004815554524
0.0004815554668
0.0004622925114
0.0004034585288
0.0002713606808
7.26270464e-05
)
;

boundaryField
{
    WALL
    {
        type            calculated;
        value           uniform 0;
    }
    INLET
    {
        type            calculated;
        value           nonuniform List<scalar> 
100
(
0.001554588833
0.001554588824
0.00155458882
0.001554588818
0.001554588817
0.001554588817
0.001554588818
0.00155458882
0.001554588824
0.001554588833
0.001554588824
0.001554588815
0.00155458881
0.001554588808
0.001554588807
0.001554588807
0.001554588808
0.00155458881
0.001554588815
0.001554588824
0.00155458882
0.00155458881
0.001554588806
0.001554588804
0.001554588803
0.001554588803
0.001554588804
0.001554588806
0.00155458881
0.00155458882
0.001554588818
0.001554588808
0.001554588804
0.001554588802
0.001554588801
0.001554588801
0.001554588802
0.001554588804
0.001554588808
0.001554588818
0.001554588817
0.001554588807
0.001554588803
0.001554588801
0.0015545888
0.0015545888
0.001554588801
0.001554588803
0.001554588807
0.001554588817
0.001554588817
0.001554588807
0.001554588803
0.001554588801
0.0015545888
0.0015545888
0.001554588801
0.001554588803
0.001554588807
0.001554588817
0.001554588818
0.001554588808
0.001554588804
0.001554588802
0.001554588801
0.001554588801
0.001554588802
0.001554588804
0.001554588808
0.001554588818
0.00155458882
0.00155458881
0.001554588806
0.001554588804
0.001554588803
0.001554588803
0.001554588804
0.001554588806
0.00155458881
0.00155458882
0.001554588824
0.001554588815
0.00155458881
0.001554588808
0.001554588807
0.001554588807
0.001554588808
0.00155458881
0.001554588815
0.001554588824
0.001554588833
0.001554588824
0.00155458882
0.001554588818
0.001554588817
0.001554588817
0.001554588818
0.00155458882
0.001554588824
0.001554588833
)
;
    }
    OUTLET
    {
        type            calculated;
        value           nonuniform List<scalar> 
100
(
7.26270467e-05
0.0002713606793
0.0004034585402
0.0004622925514
0.0004815555556
0.0004815555814
0.0004622926228
0.0004034586156
0.0002713607216
7.262706275e-05
0.0002713606711
0.001166777461
0.001779944237
0.002044673183
0.002126135091
0.002126135111
0.002044673214
0.001779944265
0.001166777467
0.000271360677
0.0004034585138
0.001779944233
0.002701816586
0.003084285637
0.003194797742
0.003194797706
0.003084285533
0.002701816451
0.001779944135
0.0004034585008
0.0004622925088
0.002044673176
0.003084285692
0.00350317868
0.003618903316
0.003618903212
0.003503178411
0.003084285388
0.002044672988
0.0004622924739
0.0004815554859
0.002126135127
0.003194797928
0.003618903523
0.00373368528
0.003733685164
0.003618903231
0.003194797604
0.002126134928
0.000481555452
0.0004815554872
0.002126135179
0.00319479806
0.003618903748
0.003733685584
0.003733685534
0.003618903604
0.003194797893
0.002126135071
0.0004815554663
0.0004622925136
0.002044673305
0.003084286013
0.003503179223
0.00361890403
0.003618904068
0.003503179273
0.003084286057
0.002044673334
0.000462292511
0.0004034585114
0.001779944349
0.002701816889
0.003084286129
0.003194798401
0.003194798477
0.003084286288
0.002701817044
0.001779944429
0.0004034585285
0.0002713606671
0.001166777501
0.001779944353
0.002044673372
0.002126135335
0.002126135383
0.002044673476
0.001779944457
0.001166777563
0.0002713606806
7.262704243e-05
0.0002713606545
0.0004034584946
0.0004622924842
0.0004815554479
0.0004815554608
0.0004622925063
0.0004034585292
0.0002713606803
7.262704634e-05
)
;
    }
}


// ************************************************************************* //
